LAMMPS (3 Nov 2022)
# Initialize simulation

variable nsteps index 1000
variable nrep equal 4
variable a equal 3.316
units           metal

# generate the box and atom positions using a BCC lattice

variable nx equal ${nrep}
variable nx equal 4
variable ny equal ${nrep}
variable ny equal 4
variable nz equal ${nrep}
variable nz equal 4

boundary        p p p

lattice         bcc $a
lattice         bcc 3.316
Lattice spacing in x,y,z = 3.316 3.316 3.316
region          box block 0 ${nx} 0 ${ny} 0 ${nz}
region          box block 0 4 0 ${ny} 0 ${nz}
region          box block 0 4 0 4 0 ${nz}
region          box block 0 4 0 4 0 4
create_box      1 box
Created orthogonal box = (0 0 0) to (13.264 13.264 13.264)
  1 by 1 by 1 MPI processor grid
create_atoms    1 box
Created 128 atoms
  using lattice units in orthogonal box = (0 0 0) to (13.264 13.264 13.264)
  create_atoms CPU = 0.000 seconds

mass 1 180.88

# choose potential

pair_style pace product
ACE version: 2022.6.27
Product evaluator is used
pair_coeff * * ../Ta_pot.yace Ta
Loading ../Ta_pot.yace
Total number of basis functions
	Ta: 8 (r=1) 35 (r>1)
Mapping LAMMPS atom type #1(Ta) -> ACE species type #0

compute  eatom all pe/atom
compute  energy all reduce sum c_eatom

compute  satom all stress/atom NULL
compute  str all reduce sum c_satom[1] c_satom[2] c_satom[3]
variable press equal (c_str[1]+c_str[2]+c_str[3])/(3*vol)

thermo_style    custom step temp epair c_energy etotal press v_press
thermo          10
thermo_modify norm yes

# Set up NVE run

timestep 0.5e-3
neighbor 1.0 bin
neigh_modify once no every 1 delay 0 check yes

# Run MD

velocity all create 200.0 4928459 loop geom
dump 1 all xyz 10 dump.xyz
fix 1 all nve
run             ${nsteps}
run             1000
Neighbor list info ...
  update: every = 1 steps, delay = 0 steps, check = yes
  max neighbors/atom: 2000, page size: 100000
  master list distance cutoff = 5.6046945
  ghost atom cutoff = 5.6046945
  binsize = 2.8023472, bins = 5 5 5
  1 neighbor lists, perpetual/occasional/extra = 1 0 0
  (1) pair pace, perpetual
      attributes: full, newton on
      pair build: full/bin/atomonly
      stencil: full/bin/3d
      bin: standard
Per MPI rank memory allocation (min/avg/max) = 4.968 | 4.968 | 4.968 Mbytes
   Step          Temp          E_pair        c_energy        TotEng         Press         v_press    
         0   200           -11.663361     -11.663361     -11.637711     -4152.2598      4152.2598    
        10   197.50531     -11.663041     -11.663041     -11.637711     -4050.3549      4050.3549    
        20   190.17346     -11.662101     -11.662101     -11.637711     -3750.961       3750.961     
        30   178.45638     -11.660598     -11.660598     -11.637711     -3272.6501      3272.6501    
        40   163.0789      -11.658626     -11.658626     -11.637711     -2644.9851      2644.9851    
        50   144.99043     -11.656306     -11.656306     -11.637711     -1900.6575      1900.6575    
        60   125.2922      -11.653779     -11.653779     -11.637711     -1068.0132      1068.0132    
        70   105.1804      -11.6512       -11.6512       -11.637711     -215.24222      215.24222    
        80   85.868528     -11.648723     -11.648723     -11.63771       617.05643     -617.05643    
        90   68.48628      -11.646494     -11.646494     -11.63771       1387.838      -1387.838     
       100   54.006605     -11.644637     -11.644637     -11.63771       2041.8233     -2041.8233    
       110   43.175113     -11.643247     -11.643247     -11.63771       2554.5739     -2554.5739    
       120   36.453649     -11.642385     -11.642385     -11.63771       2897.8795     -2897.8795    
       130   33.995766     -11.64207      -11.64207      -11.63771       3072.9845     -3072.9845    
       140   35.642538     -11.642281     -11.642281     -11.63771       3076.8795     -3076.8795    
       150   40.952247     -11.642962     -11.642962     -11.63771       2928.5195     -2928.5195    
       160   49.244297     -11.644026     -11.644026     -11.63771       2659.7239     -2659.7239    
       170   59.665796     -11.645363     -11.645363     -11.63771       2288.1666     -2288.1666    
       180   71.267327     -11.646851     -11.646851     -11.637711      1860.4458     -1860.4458    
       190   83.080252     -11.648366     -11.648366     -11.637711      1410.6636     -1410.6636    
       200   94.195111     -11.649791     -11.649791     -11.637711      979.22388     -979.22388    
       210   103.82254     -11.651026     -11.651026     -11.637711      595.7329      -595.7329     
       220   111.35205     -11.651992     -11.651992     -11.637711      298.38855     -298.38855    
       230   116.38152     -11.652637     -11.652637     -11.637711      92.487131     -92.487131    
       240   118.73056     -11.652938     -11.652938     -11.637711     -14.544919      14.544919    
       250   118.44292     -11.652901     -11.652901     -11.637711     -18.63615       18.63615     
       260   115.77828     -11.652559     -11.652559     -11.637711      64.516992     -64.516992    
       270   111.17745     -11.651969     -11.651969     -11.637711      224.94034     -224.94034    
       280   105.21755     -11.651205     -11.651205     -11.637711      434.31973     -434.31973    
       290   98.561874     -11.650351     -11.650351     -11.637711      666.95691     -666.95691    
       300   91.904608     -11.649497     -11.649497     -11.637711      892.86716     -892.86716    
       310   85.911067     -11.648729     -11.648729     -11.63771       1097.4949     -1097.4949    
       320   81.165144     -11.64812      -11.64812      -11.63771       1257.4488     -1257.4488    
       330   78.129034     -11.64773      -11.64773      -11.63771       1348.053      -1348.053     
       340   77.10079      -11.647599     -11.647599     -11.63771       1353.0158     -1353.0158    
       350   78.192576     -11.647739     -11.647739     -11.63771       1280.7638     -1280.7638    
       360   81.326812     -11.648141     -11.648141     -11.63771       1118.9939     -1118.9939    
       370   86.256671     -11.648773     -11.648773     -11.63771       885.00168     -885.00168    
       380   92.586544     -11.649585     -11.649585     -11.63771       598.80311     -598.80311    
       390   99.809743     -11.650511     -11.650511     -11.637711      281.50317     -281.50317    
       400   107.35641     -11.651479     -11.651479     -11.637711     -49.984481      49.984481    
       410   114.64325     -11.652414     -11.652414     -11.637711     -364.94301      364.94301    
       420   121.11717     -11.653244     -11.653244     -11.637711     -651.37131      651.37131    
       430   126.2998      -11.653909     -11.653909     -11.637711     -885.84216      885.84216    
       440   129.82685     -11.654361     -11.654361     -11.637711     -1047.2082      1047.2082    
       450   131.47728     -11.654573     -11.654573     -11.637711     -1123.5859      1123.5859    
       460   131.18448     -11.654535     -11.654535     -11.637711     -1119.2723      1119.2723    
       470   129.02744     -11.654259     -11.654259     -11.637711     -1035.1426      1035.1426    
       480   125.23434     -11.653772     -11.653772     -11.637711     -881.95343      881.95343    
       490   120.15857     -11.653121     -11.653121     -11.637711     -665.9064       665.9064     
       500   114.24237     -11.652362     -11.652362     -11.637711     -415.86512      415.86512    
       510   107.97788     -11.651559     -11.651559     -11.637711     -152.0599       152.0599     
       520   101.86496     -11.650775     -11.650775     -11.637711      111.60054     -111.60054    
       530   96.361746     -11.650069     -11.650069     -11.63771       354.25526     -354.25526    
       540   91.847979     -11.64949      -11.64949      -11.63771       567.35688     -567.35688    
       550   88.588806     -11.649072     -11.649072     -11.63771       727.68684     -727.68684    
       560   86.718059     -11.648832     -11.648832     -11.63771       836.31955     -836.31955    
       570   86.224693     -11.648769     -11.648769     -11.63771       886.34063     -886.34063    
       580   86.9666       -11.648864     -11.648864     -11.63771       883.567       -883.567      
       590   88.682406     -11.649084     -11.649084     -11.637711      836.27159     -836.27159    
       600   91.029775     -11.649385     -11.649385     -11.637711      760.12572     -760.12572    
       610   93.615925     -11.649717     -11.649717     -11.637711      669.85647     -669.85647    
       620   96.04244      -11.650028     -11.650028     -11.637711      582.85575     -582.85575    
       630   97.947925     -11.650272     -11.650272     -11.637711      516.32259     -516.32259    
       640   99.044509     -11.650413     -11.650413     -11.637711      477.25333     -477.25333    
       650   99.146209     -11.650426     -11.650426     -11.637711      479.50605     -479.50605    
       660   98.185073     -11.650303     -11.650303     -11.637711      513.22813     -513.22813    
       670   96.217895     -11.650051     -11.650051     -11.637711      571.30287     -571.30287    
       680   93.418784     -11.649692     -11.649692     -11.637711      657.1028      -657.1028     
       690   90.067716     -11.649262     -11.649262     -11.637711      762.33789     -762.33789    
       700   86.526162     -11.648808     -11.648808     -11.637711      871.30762     -871.30762    
       710   83.210845     -11.648382     -11.648382     -11.637711      978.29798     -978.29798    
       720   80.55147      -11.648041     -11.648041     -11.63771       1056.3385     -1056.3385    
       730   78.950679     -11.647836     -11.647836     -11.63771       1091.6577     -1091.6577    
       740   78.748909     -11.64781      -11.64781      -11.63771       1073.0528     -1073.0528    
       750   80.18687      -11.647994     -11.647994     -11.63771       992.37358     -992.37358    
       760   83.383866     -11.648404     -11.648404     -11.63771       845.02184     -845.02184    
       770   88.312245     -11.649037     -11.649037     -11.63771       627.6246      -627.6246     
       780   94.796107     -11.649868     -11.649868     -11.63771       351.23184     -351.23184    
       790   102.51972     -11.650859     -11.650859     -11.63771       33.611745     -33.611745    
       800   111.05212     -11.651953     -11.651953     -11.637711     -307.55041      307.55041    
       810   119.86886     -11.653084     -11.653084     -11.637711     -652.8968       652.8968     
       820   128.38668     -11.654176     -11.654176     -11.637711     -980.54537      980.54537    
       830   136.00897     -11.655154     -11.655154     -11.637711     -1271.2575      1271.2575    
       840   142.17157     -11.655944     -11.655944     -11.637711     -1499.5635      1499.5635    
       850   146.38151     -11.656484     -11.656484     -11.637711     -1651.1859      1651.1859    
       860   148.25594     -11.656725     -11.656725     -11.637711     -1708.496       1708.496     
       870   147.55021     -11.656634     -11.656634     -11.637711     -1651.3295      1651.3295    
       880   144.1725      -11.656201     -11.656201     -11.637711     -1484.2527      1484.2527    
       890   138.20474     -11.655436     -11.655436     -11.637711     -1217.4379      1217.4379    
       900   129.9022      -11.654371     -11.654371     -11.637711     -859.56985      859.56985    
       910   119.68096     -11.65306      -11.65306      -11.637711     -415.60835      415.60835    
       920   108.09287     -11.651574     -11.651574     -11.637711      71.016971     -71.016971    
       930   95.79543      -11.649996     -11.649996     -11.637711      583.10606     -583.10606    
       940   83.51275      -11.648421     -11.648421     -11.637711      1101.1073     -1101.1073    
       950   71.988422     -11.646943     -11.646943     -11.63771       1574.4502     -1574.4502    
       960   61.941189     -11.645654     -11.645654     -11.63771       1984.8538     -1984.8538    
       970   54.003756     -11.644636     -11.644636     -11.63771       2305.1058     -2305.1058    
       980   48.678979     -11.643953     -11.643953     -11.63771       2513.7924     -2513.7924    
       990   46.298769     -11.643648     -11.643648     -11.63771       2606.4253     -2606.4253    
      1000   46.994479     -11.643737     -11.643737     -11.63771       2566.3866     -2566.3866    
Loop time of 1.57343 on 1 procs for 1000 steps with 128 atoms

Performance: 27.456 ns/day, 0.874 hours/ns, 635.554 timesteps/s, 81.351 katom-step/s
98.9% CPU use with 1 MPI tasks x no OpenMP threads

MPI task timing breakdown:
Section |  min time  |  avg time  |  max time  |%varavg| %total
---------------------------------------------------------------
Pair    | 1.5499     | 1.5499     | 1.5499     |   0.0 | 98.51
Neigh   | 0          | 0          | 0          |   0.0 |  0.00
Comm    | 0.0027777  | 0.0027777  | 0.0027777  |   0.0 |  0.18
Output  | 0.018023   | 0.018023   | 0.018023   |   0.0 |  1.15
Modify  | 0.0013586  | 0.0013586  | 0.0013586  |   0.0 |  0.09
Other   |            | 0.001342   |            |       |  0.09

Nlocal:            128 ave         128 max         128 min
Histogram: 1 0 0 0 0 0 0 0 0 0
Nghost:            727 ave         727 max         727 min
Histogram: 1 0 0 0 0 0 0 0 0 0
Neighs:              0 ave           0 max           0 min
Histogram: 1 0 0 0 0 0 0 0 0 0
FullNghs:         6400 ave        6400 max        6400 min
Histogram: 1 0 0 0 0 0 0 0 0 0

Total # of neighbors = 6400
Ave neighs/atom = 50
Neighbor list builds = 0
Dangerous builds = 0

Total wall time: 0:00:01
